<?xml version="1.0" encoding="UTF-8"?>

<!-- generated on 2023-09-26 10:37:47 by Eclipse SUMO GUI Version 1.16.0
<configuration xmlns:xsi="http://www.w3.org/2001/XMLSchema-instance" xsi:noNamespaceSchemaLocation="http://sumo.dlr.de/xsd/sumoConfiguration.xsd">

    <input>
        <net-file value="C:\Users\Ankita\Desktop\sumo-1.16.0\docs\examples\sumo\vehicle_stops\net.net.xml"/>
        <route-files value="C:\Users\Ankita\Desktop\sumo-1.16.0\docs\examples\sumo\vehicle_stops\input_routes.rou.xml"/>
    </input>

    <output>
        <write-license value="true"/>
        <vehroute-output value="C:\Users\Ankita\Desktop\sumo-1.16.0\docs\examples\sumo\vehicle_stops\vehroutes.xml"/>
        <stop-output value="C:\Users\Ankita\Desktop\sumo-1.16.0\docs\examples\sumo\vehicle_stops\stopinfos.xml"/>
    </output>

    <processing>
        <default.speeddev value="0"/>
    </processing>

    <report>
        <duration-log.disable value="true"/>
        <no-step-log value="true"/>
    </report>

</configuration>
-->

<routes xmlns:xsi="http://www.w3.org/2001/XMLSchema-instance" xsi:noNamespaceSchemaLocation="http://sumo.dlr.de/xsd/routes_file.xsd">
</routes>
